TITLE = "Generated by Cassiopee"
VARIABLES = "CoordinateX" "CoordinateY" "CoordinateZ" 
ZONE T="Zone1", Nodes=2393, Elements=1576, Faces=5892, ZONETYPE=FEPolyhedron
DATAPACKING=BLOCK
TotalNumFaceNodes=23568, NumConnectedBoundaryFaces=0, TotalNumBoundaryConnections=0
1.112349010e+01 1.624688119e+01 1.624688119e+01 1.112349010e+01 1.112349010e+01 1.624688119e+01
1.624688119e+01 1.112349010e+01 6.000099006e+00 6.000099006e+00 6.000099006e+00 6.000099006e+00
1.112349010e+01 1.624688119e+01 1.112349010e+01 1.624688119e+01 6.000099006e+00 8.561794552e+00
8.561794552e+00 6.000099006e+00 6.000099006e+00 8.561794552e+00 8.561794552e+00 6.000099006e+00
1.112349010e+01 1.112349010e+01 1.112349010e+01 8.561794552e+00 1.112349010e+01 8.561794552e+00
6.000099006e+00 6.000099006e+00 8.561794552e+00 8.561794552e+00 6.000099006e+00 1.112349010e+01
8.561794552e+00 1.112349010e+01 1.624688119e+01 1.624688119e+01 1.112349010e+01 6.000099006e+00
8.561794552e+00 8.561794552e+00 6.000099006e+00 6.000099006e+00 8.561794552e+00 8.561794552e+00
6.000099006e+00 1.112349010e+01 1.112349010e+01 1.112349010e+01 8.561794552e+00 1.112349010e+01
8.561794552e+00 6.000099006e+00 6.000099006e+00 8.561794552e+00 6.000099006e+00 1.112349010e+01
8.561794552e+00 1.112349010e+01 1.368518564e+01 1.368518564e+01 1.112349010e+01 1.112349010e+01
1.368518564e+01 1.368518564e+01 1.112349010e+01 1.624688119e+01 1.624688119e+01 1.624688119e+01
1.624688119e+01 1.368518564e+01 1.624688119e+01 1.368518564e+01 1.368518564e+01 1.368518564e+01
1.624688119e+01 1.368518564e+01 8.561794552e+00 6.000099006e+00 8.561794552e+00 6.000099006e+00
7.280946779e+00 7.280946779e+00 6.000099006e+00 6.000099006e+00 7.280946779e+00 7.280946779e+00
6.000099006e+00 8.561794552e+00 8.561794552e+00 8.561794552e+00 7.280946779e+00 8.561794552e+00
7.280946779e+00 6.000099006e+00 7.280946779e+00 7.280946779e+00 6.000099006e+00 8.561794552e+00
7.280946779e+00 8.561794552e+00 6.000099006e+00 7.280946779e+00 7.280946779e+00 6.000099006e+00
6.000099006e+00 7.280946779e+00 7.280946779e+00 6.000099006e+00 8.561794552e+00 8.561794552e+00
8.561794552e+00 7.280946779e+00 8.561794552e+00 7.280946779e+00 6.000099006e+00 7.280946779e+00
6.000099006e+00 8.561794552e+00 7.280946779e+00 8.561794552e+00 9.842642325e+00 9.842642325e+00
8.561794552e+00 8.561794552e+00 9.842642325e+00 9.842642325e+00 8.561794552e+00 1.112349010e+01
1.112349010e+01 1.112349010e+01 9.842642325e+00 1.112349010e+01 9.842642325e+00 9.842642325e+00
9.842642325e+00 1.112349010e+01 9.842642325e+00 7.280946779e+00 6.000099006e+00 7.280946779e+00
6.000099006e+00 6.640522892e+00 6.640522892e+00 6.000099006e+00 6.000099006e+00 6.640522892e+00
6.640522892e+00 6.000099006e+00 7.280946779e+00 7.280946779e+00 7.280946779e+00 6.640522892e+00
7.280946779e+00 6.640522892e+00 6.000099006e+00 6.640522892e+00 6.640522892e+00 6.000099006e+00
7.280946779e+00 6.640522892e+00 7.280946779e+00 6.000099006e+00 6.640522892e+00 6.640522892e+00
6.000099006e+00 6.000099006e+00 6.640522892e+00 6.640522892e+00 6.000099006e+00 7.280946779e+00
7.280946779e+00 7.280946779e+00 6.640522892e+00 7.280946779e+00 6.640522892e+00 6.000099006e+00
6.640522892e+00 6.000099006e+00 7.280946779e+00 6.640522892e+00 7.280946779e+00 7.921370665e+00
7.921370665e+00 7.280946779e+00 7.280946779e+00 7.921370665e+00 7.921370665e+00 7.280946779e+00
8.561794552e+00 8.561794552e+00 8.561794552e+00 7.921370665e+00 8.561794552e+00 7.921370665e+00
7.921370665e+00 7.921370665e+00 8.561794552e+00 7.921370665e+00 6.640522892e+00 6.000099006e+00
6.640522892e+00 6.000099006e+00 6.320310949e+00 6.320310949e+00 6.000099006e+00 6.000099006e+00
6.320310949e+00 6.320310949e+00 6.000099006e+00 6.640522892e+00 6.640522892e+00 6.640522892e+00
6.320310949e+00 6.640522892e+00 6.320310949e+00 6.000099006e+00 6.320310949e+00 6.320310949e+00
6.000099006e+00 6.640522892e+00 6.320310949e+00 6.640522892e+00 6.000099006e+00 6.320310949e+00
6.320310949e+00 6.000099006e+00 6.000099006e+00 6.320310949e+00 6.320310949e+00 6.000099006e+00
6.640522892e+00 6.640522892e+00 6.640522892e+00 6.320310949e+00 6.640522892e+00 6.320310949e+00
6.000099006e+00 6.320310949e+00 6.000099006e+00 6.640522892e+00 6.320310949e+00 6.640522892e+00
6.960734836e+00 6.960734836e+00 6.640522892e+00 6.640522892e+00 6.960734836e+00 6.960734836e+00
6.640522892e+00 7.280946779e+00 7.280946779e+00 7.280946779e+00 6.960734836e+00 7.280946779e+00
6.960734836e+00 6.960734836e+00 6.960734836e+00 7.280946779e+00 6.960734836e+00 6.320310949e+00
6.000099006e+00 6.320310949e+00 6.000099006e+00 6.160204977e+00 6.160204977e+00 6.000099006e+00
6.000099006e+00 6.160204977e+00 6.160204977e+00 6.000099006e+00 6.320310949e+00 6.320310949e+00
6.320310949e+00 6.160204977e+00 6.320310949e+00 6.160204977e+00 6.000099006e+00 6.160204977e+00
6.160204977e+00 6.000099006e+00 6.320310949e+00 6.160204977e+00 6.320310949e+00 6.000099006e+00
6.160204977e+00 6.160204977e+00 6.000099006e+00 6.000099006e+00 6.160204977e+00 6.160204977e+00
6.000099006e+00 6.320310949e+00 6.320310949e+00 6.320310949e+00 6.160204977e+00 6.320310949e+00
6.160204977e+00 6.000099006e+00 6.160204977e+00 6.000099006e+00 6.320310949e+00 6.160204977e+00
6.320310949e+00 6.480416921e+00 6.480416921e+00 6.320310949e+00 6.320310949e+00 6.480416921e+00
6.480416921e+00 6.320310949e+00 6.640522892e+00 6.640522892e+00 6.640522892e+00 6.480416921e+00
6.640522892e+00 6.480416921e+00 6.480416921e+00 6.480416921e+00 6.640522892e+00 6.480416921e+00
6.160204977e+00 6.080151992e+00 6.160204977e+00 6.160204977e+00 6.080151992e+00 6.080151992e+00
6.160204977e+00 6.080151992e+00 6.000099006e+00 6.000099006e+00 6.000099006e+00 6.080151992e+00
6.160204977e+00 6.080151992e+00 6.000099006e+00 6.080151992e+00 6.160204977e+00 6.080151992e+00
6.000099006e+00 6.080151992e+00 6.000099006e+00 6.240257963e+00 6.320310949e+00 6.320310949e+00
6.240257963e+00 6.240257963e+00 6.320310949e+00 6.240257963e+00 6.160204977e+00 6.160204977e+00
6.240257963e+00 6.320310949e+00 6.240257963e+00 6.160204977e+00 6.240257963e+00 6.320310949e+00
6.240257963e+00 6.160204977e+00 6.240257963e+00 6.160204977e+00 6.080151992e+00 6.080151992e+00
6.000099006e+00 6.000099006e+00 6.080151992e+00 6.080151992e+00 6.000099006e+00 6.080151992e+00
6.000099006e+00 6.080151992e+00 6.000099006e+00 6.240257963e+00 6.320310949e+00 6.320310949e+00
6.240257963e+00 6.240257963e+00 6.320310949e+00 6.240257963e+00 6.160204977e+00 6.160204977e+00
6.240257963e+00 6.320310949e+00 6.160204977e+00 6.240257963e+00 6.320310949e+00 6.240257963e+00
6.160204977e+00 6.240257963e+00 6.160204977e+00 6.080151992e+00 6.080151992e+00 6.000099006e+00
6.000099006e+00 6.080151992e+00 6.000099006e+00 6.080151992e+00 6.080151992e+00 6.000099006e+00
6.080151992e+00 6.000099006e+00 6.240257963e+00 6.320310949e+00 6.160204977e+00 6.240257963e+00
6.320310949e+00 6.160204977e+00 6.240257963e+00 6.320310949e+00 6.160204977e+00 6.240257963e+00
6.160204977e+00 6.080151992e+00 6.000099006e+00 6.080151992e+00 6.000099006e+00 6.080151992e+00
6.000099006e+00 6.080151992e+00 6.000099006e+00 8.767079130e-01 8.767079130e-01 8.767079130e-01
8.767079130e-01 -4.246683179e+00 -4.246683179e+00 -4.246683179e+00 -4.246683179e+00 8.767079130e-01
3.438403460e+00 3.438403460e+00 8.767079130e-01 8.767079130e-01 3.438403460e+00 3.438403460e+00
8.767079130e-01 3.438403460e+00 3.438403460e+00 8.767079130e-01 8.767079130e-01 3.438403460e+00
3.438403460e+00 8.767079130e-01 3.438403460e+00 -4.246683179e+00 -4.246683179e+00 8.767079130e-01
3.438403460e+00 3.438403460e+00 8.767079130e-01 8.767079130e-01 3.438403460e+00 3.438403460e+00
8.767079130e-01 3.438403460e+00 3.438403460e+00 8.767079130e-01 8.767079130e-01 3.438403460e+00
8.767079130e-01 3.438403460e+00 -4.246683179e+00 -4.246683179e+00 3.438403460e+00 8.767079130e-01
3.438403460e+00 4.719251233e+00 4.719251233e+00 3.438403460e+00 3.438403460e+00 4.719251233e+00
4.719251233e+00 3.438403460e+00 4.719251233e+00 4.719251233e+00 3.438403460e+00 4.719251233e+00
4.719251233e+00 3.438403460e+00 4.719251233e+00 8.767079130e-01 3.438403460e+00 4.719251233e+00
4.719251233e+00 3.438403460e+00 3.438403460e+00 4.719251233e+00 4.719251233e+00 3.438403460e+00
4.719251233e+00 4.719251233e+00 3.438403460e+00 4.719251233e+00 3.438403460e+00 4.719251233e+00
8.767079130e-01 4.719251233e+00 3.438403460e+00 4.719251233e+00 5.359675119e+00 5.359675119e+00
4.719251233e+00 4.719251233e+00 5.359675119e+00 5.359675119e+00 4.719251233e+00 5.359675119e+00
5.359675119e+00 4.719251233e+00 5.359675119e+00 5.359675119e+00 4.719251233e+00 5.359675119e+00
3.438403460e+00 4.719251233e+00 5.359675119e+00 5.359675119e+00 4.719251233e+00 4.719251233e+00
5.359675119e+00 5.359675119e+00 4.719251233e+00 5.359675119e+00 5.359675119e+00 4.719251233e+00
5.359675119e+00 4.719251233e+00 5.359675119e+00 3.438403460e+00 5.359675119e+00 4.719251233e+00
5.359675119e+00 5.679887062e+00 5.679887062e+00 5.359675119e+00 5.359675119e+00 5.679887062e+00
5.679887062e+00 5.359675119e+00 5.679887062e+00 5.679887062e+00 5.359675119e+00 5.679887062e+00
5.679887062e+00 5.359675119e+00 5.679887062e+00 4.719251233e+00 5.359675119e+00 5.679887062e+00
5.679887062e+00 5.359675119e+00 5.359675119e+00 5.679887062e+00 5.679887062e+00 5.359675119e+00
5.679887062e+00 5.679887062e+00 5.359675119e+00 5.679887062e+00 5.359675119e+00 5.679887062e+00
4.719251233e+00 5.679887062e+00 5.359675119e+00 5.679887062e+00 5.839993034e+00 5.839993034e+00
5.679887062e+00 5.679887062e+00 5.839993034e+00 5.839993034e+00 5.679887062e+00 5.839993034e+00
5.839993034e+00 5.679887062e+00 5.839993034e+00 5.839993034e+00 5.679887062e+00 5.839993034e+00
5.359675119e+00 5.679887062e+00 5.839993034e+00 5.839993034e+00 5.679887062e+00 5.679887062e+00
5.839993034e+00 5.839993034e+00 5.679887062e+00 5.839993034e+00 5.839993034e+00 5.679887062e+00
5.839993034e+00 5.679887062e+00 5.839993034e+00 5.359675119e+00 5.920046020e+00 5.920046020e+00
5.920046020e+00 5.920046020e+00 5.839993034e+00 5.839993034e+00 5.839993034e+00 5.920046020e+00
5.920046020e+00 5.839993034e+00 5.920046020e+00 5.920046020e+00 5.839993034e+00 5.920046020e+00
5.839993034e+00 5.679887062e+00 5.920046020e+00 5.920046020e+00 5.839993034e+00 5.839993034e+00
5.920046020e+00 5.920046020e+00 5.839993034e+00 5.920046020e+00 5.839993034e+00 5.920046020e+00
5.839993034e+00 5.759940048e+00 5.759940048e+00 5.759940048e+00 5.759940048e+00 5.679887062e+00
5.679887062e+00 5.679887062e+00 5.759940048e+00 5.759940048e+00 5.679887062e+00 5.759940048e+00
5.759940048e+00 5.679887062e+00 5.759940048e+00 5.679887062e+00 5.920046020e+00 5.920046020e+00
5.839993034e+00 5.839993034e+00 5.920046020e+00 5.839993034e+00 5.920046020e+00 5.920046020e+00
5.839993034e+00 5.920046020e+00 5.839993034e+00 5.759940048e+00 5.759940048e+00 5.759940048e+00
5.759940048e+00 5.679887062e+00 5.679887062e+00 5.679887062e+00 5.759940048e+00 5.679887062e+00
5.759940048e+00 5.759940048e+00 5.679887062e+00 5.759940048e+00 5.679887062e+00 5.920046020e+00
5.839993034e+00 5.920046020e+00 5.839993034e+00 5.920046020e+00 5.839993034e+00 5.920046020e+00
5.839993034e+00 5.759940048e+00 5.679887062e+00 5.759940048e+00 5.679887062e+00 5.759940048e+00
5.679887062e+00 5.759940048e+00 5.679887062e+00 5.359675119e+00 5.519781091e+00 5.519781091e+00
5.359675119e+00 5.359675119e+00 5.519781091e+00 5.519781091e+00 5.359675119e+00 5.519781091e+00
5.519781091e+00 5.359675119e+00 5.519781091e+00 5.519781091e+00 5.359675119e+00 5.519781091e+00
4.719251233e+00 5.039463176e+00 5.039463176e+00 4.719251233e+00 4.719251233e+00 5.039463176e+00
5.039463176e+00 4.719251233e+00 5.039463176e+00 5.039463176e+00 4.719251233e+00 5.039463176e+00
5.039463176e+00 4.719251233e+00 5.039463176e+00 3.438403460e+00 4.078827346e+00 4.078827346e+00
3.438403460e+00 3.438403460e+00 4.078827346e+00 4.078827346e+00 3.438403460e+00 4.078827346e+00
4.078827346e+00 3.438403460e+00 4.078827346e+00 4.078827346e+00 3.438403460e+00 4.078827346e+00
8.767079130e-01 2.157555687e+00 2.157555687e+00 8.767079130e-01 8.767079130e-01 2.157555687e+00
2.157555687e+00 8.767079130e-01 2.157555687e+00 2.157555687e+00 8.767079130e-01 2.157555687e+00
2.157555687e+00 8.767079130e-01 2.157555687e+00 -4.246683179e+00 -1.684987633e+00 -1.684987633e+00
-4.246683179e+00 -4.246683179e+00 -1.684987633e+00 -1.684987633e+00 -4.246683179e+00 -1.684987633e+00
-1.684987633e+00 -4.246683179e+00 -1.684987633e+00 -1.684987633e+00 -4.246683179e+00 -1.684987633e+00
1.112349010e+01 1.624688119e+01 1.112349010e+01 1.624688119e+01 6.000099006e+00 8.561794552e+00
8.561794552e+00 6.000099006e+00 6.000099006e+00 8.561794552e+00 8.561794552e+00 6.000099006e+00
1.112349010e+01 1.112349010e+01 1.112349010e+01 6.000099006e+00 8.561794552e+00 8.561794552e+00
6.000099006e+00 1.112349010e+01 1.112349010e+01 1.624688119e+01 1.112349010e+01 1.624688119e+01
6.000099006e+00 6.000099006e+00 1.112349010e+01 1.368518564e+01 1.368518564e+01 1.112349010e+01
1.112349010e+01 1.368518564e+01 1.368518564e+01 1.112349010e+01 1.624688119e+01 1.624688119e+01
1.624688119e+01 1.624688119e+01 1.368518564e+01 1.368518564e+01 1.624688119e+01 8.561794552e+00
6.000099006e+00 7.280946779e+00 7.280946779e+00 6.000099006e+00 6.000099006e+00 7.280946779e+00
7.280946779e+00 6.000099006e+00 8.561794552e+00 8.561794552e+00 8.561794552e+00 7.280946779e+00
7.280946779e+00 6.000099006e+00 8.561794552e+00 8.561794552e+00 6.000099006e+00 8.561794552e+00
9.842642325e+00 9.842642325e+00 8.561794552e+00 8.561794552e+00 9.842642325e+00 9.842642325e+00
8.561794552e+00 1.112349010e+01 1.112349010e+01 1.112349010e+01 9.842642325e+00 9.842642325e+00
1.112349010e+01 7.280946779e+00 6.000099006e+00 6.640522892e+00 6.640522892e+00 6.000099006e+00
6.000099006e+00 6.640522892e+00 6.640522892e+00 6.000099006e+00 7.280946779e+00 7.280946779e+00
7.280946779e+00 6.640522892e+00 6.640522892e+00 6.000099006e+00 7.280946779e+00 7.280946779e+00
6.000099006e+00 7.280946779e+00 7.921370665e+00 7.921370665e+00 7.280946779e+00 7.280946779e+00
7.921370665e+00 7.921370665e+00 7.280946779e+00 8.561794552e+00 8.561794552e+00 8.561794552e+00
7.921370665e+00 7.921370665e+00 8.561794552e+00 6.640522892e+00 6.000099006e+00 6.320310949e+00
6.320310949e+00 6.000099006e+00 6.000099006e+00 6.320310949e+00 6.320310949e+00 6.000099006e+00
6.640522892e+00 6.640522892e+00 6.640522892e+00 6.320310949e+00 6.320310949e+00 6.000099006e+00
6.640522892e+00 6.640522892e+00 6.000099006e+00 6.640522892e+00 6.960734836e+00 6.960734836e+00
6.640522892e+00 6.640522892e+00 6.960734836e+00 6.960734836e+00 6.640522892e+00 7.280946779e+00
7.280946779e+00 7.280946779e+00 6.960734836e+00 6.960734836e+00 7.280946779e+00 6.320310949e+00
6.000099006e+00 6.160204977e+00 6.160204977e+00 6.000099006e+00 6.000099006e+00 6.160204977e+00
6.160204977e+00 6.000099006e+00 6.320310949e+00 6.320310949e+00 6.320310949e+00 6.160204977e+00
6.160204977e+00 6.000099006e+00 6.320310949e+00 6.320310949e+00 6.000099006e+00 6.320310949e+00
6.480416921e+00 6.480416921e+00 6.320310949e+00 6.320310949e+00 6.480416921e+00 6.480416921e+00
6.320310949e+00 6.640522892e+00 6.640522892e+00 6.640522892e+00 6.480416921e+00 6.480416921e+00
6.640522892e+00 6.240257963e+00 6.320310949e+00 6.240257963e+00 6.320310949e+00 6.160204977e+00
6.160204977e+00 6.240257963e+00 6.320310949e+00 6.240257963e+00 6.160204977e+00 6.240257963e+00
6.320310949e+00 6.160204977e+00 6.240257963e+00 6.160204977e+00 6.080151992e+00 6.080151992e+00
6.000099006e+00 6.000099006e+00 6.080151992e+00 6.080151992e+00 6.000099006e+00 6.080151992e+00
6.000099006e+00 6.080151992e+00 6.000099006e+00 6.160204977e+00 6.080151992e+00 6.160204977e+00
6.080151992e+00 6.160204977e+00 6.000099006e+00 6.000099006e+00 6.080151992e+00 6.160204977e+00
6.080151992e+00 6.000099006e+00 6.080151992e+00 6.160204977e+00 6.000099006e+00 6.080151992e+00
6.000099006e+00 6.240257963e+00 6.320310949e+00 6.160204977e+00 6.240257963e+00 6.320310949e+00
6.160204977e+00 6.240257963e+00 6.320310949e+00 6.160204977e+00 6.240257963e+00 6.160204977e+00
6.080151992e+00 6.000099006e+00 6.080151992e+00 6.000099006e+00 6.080151992e+00 6.000099006e+00
6.080151992e+00 6.000099006e+00 6.240257963e+00 6.320310949e+00 6.240257963e+00 6.320310949e+00
6.160204977e+00 6.240257963e+00 6.320310949e+00 6.240257963e+00 6.160204977e+00 6.240257963e+00
6.320310949e+00 6.160204977e+00 6.240257963e+00 6.160204977e+00 6.080151992e+00 6.000099006e+00
6.080151992e+00 6.000099006e+00 6.080151992e+00 6.000099006e+00 6.080151992e+00 6.000099006e+00
6.320310949e+00 6.000099006e+00 6.160204977e+00 6.160204977e+00 6.000099006e+00 6.000099006e+00
6.160204977e+00 6.160204977e+00 6.000099006e+00 6.320310949e+00 6.320310949e+00 6.320310949e+00
6.160204977e+00 6.160204977e+00 6.000099006e+00 6.320310949e+00 6.640522892e+00 6.000099006e+00
6.320310949e+00 6.320310949e+00 6.000099006e+00 6.000099006e+00 6.320310949e+00 6.320310949e+00
6.000099006e+00 6.640522892e+00 6.640522892e+00 6.640522892e+00 6.320310949e+00 6.320310949e+00
6.000099006e+00 6.640522892e+00 7.280946779e+00 6.000099006e+00 6.640522892e+00 6.640522892e+00
6.000099006e+00 6.000099006e+00 6.640522892e+00 6.640522892e+00 6.000099006e+00 7.280946779e+00
7.280946779e+00 7.280946779e+00 6.640522892e+00 6.640522892e+00 6.000099006e+00 7.280946779e+00
8.561794552e+00 6.000099006e+00 7.280946779e+00 7.280946779e+00 6.000099006e+00 6.000099006e+00
7.280946779e+00 7.280946779e+00 6.000099006e+00 8.561794552e+00 8.561794552e+00 8.561794552e+00
7.280946779e+00 7.280946779e+00 6.000099006e+00 8.561794552e+00 1.112349010e+01 1.624688119e+01
6.000099006e+00 8.561794552e+00 8.561794552e+00 6.000099006e+00 6.000099006e+00 8.561794552e+00
8.561794552e+00 6.000099006e+00 1.112349010e+01 1.112349010e+01 1.112349010e+01 8.561794552e+00
8.561794552e+00 6.000099006e+00 1.112349010e+01 8.767079130e-01 3.438403460e+00 3.438403460e+00
8.767079130e-01 8.767079130e-01 3.438403460e+00 3.438403460e+00 8.767079130e-01 8.767079130e-01
3.438403460e+00 3.438403460e+00 8.767079130e-01 -4.246683179e+00 -4.246683179e+00 8.767079130e-01
8.767079130e-01 -4.246683179e+00 -4.246683179e+00 3.438403460e+00 4.719251233e+00 4.719251233e+00
3.438403460e+00 3.438403460e+00 4.719251233e+00 4.719251233e+00 3.438403460e+00 4.719251233e+00
4.719251233e+00 3.438403460e+00 8.767079130e-01 3.438403460e+00 8.767079130e-01 4.719251233e+00
5.359675119e+00 5.359675119e+00 4.719251233e+00 4.719251233e+00 5.359675119e+00 5.359675119e+00
4.719251233e+00 5.359675119e+00 5.359675119e+00 4.719251233e+00 3.438403460e+00 4.719251233e+00
3.438403460e+00 5.359675119e+00 5.679887062e+00 5.679887062e+00 5.359675119e+00 5.359675119e+00
5.679887062e+00 5.679887062e+00 5.359675119e+00 5.679887062e+00 5.679887062e+00 5.359675119e+00
4.719251233e+00 5.359675119e+00 4.719251233e+00 5.679887062e+00 5.839993034e+00 5.839993034e+00
5.679887062e+00 5.679887062e+00 5.839993034e+00 5.839993034e+00 5.679887062e+00 5.839993034e+00
5.839993034e+00 5.679887062e+00 5.359675119e+00 5.679887062e+00 5.359675119e+00 5.920046020e+00
5.920046020e+00 5.839993034e+00 5.839993034e+00 5.920046020e+00 5.920046020e+00 5.839993034e+00
5.920046020e+00 5.839993034e+00 5.920046020e+00 5.839993034e+00 5.759940048e+00 5.759940048e+00
5.679887062e+00 5.679887062e+00 5.759940048e+00 5.759940048e+00 5.679887062e+00 5.759940048e+00
5.679887062e+00 5.759940048e+00 5.679887062e+00 5.920046020e+00 5.920046020e+00 5.839993034e+00
5.839993034e+00 5.920046020e+00 5.920046020e+00 5.839993034e+00 5.920046020e+00 5.839993034e+00
5.920046020e+00 5.839993034e+00 5.679887062e+00 5.920046020e+00 5.839993034e+00 5.920046020e+00
5.839993034e+00 5.920046020e+00 5.839993034e+00 5.920046020e+00 5.839993034e+00 5.759940048e+00
5.679887062e+00 5.759940048e+00 5.679887062e+00 5.759940048e+00 5.679887062e+00 5.759940048e+00
5.679887062e+00 5.920046020e+00 5.839993034e+00 5.920046020e+00 5.839993034e+00 5.920046020e+00
5.839993034e+00 5.920046020e+00 5.839993034e+00 5.759940048e+00 5.759940048e+00 5.679887062e+00
5.679887062e+00 5.759940048e+00 5.759940048e+00 5.679887062e+00 5.759940048e+00 5.679887062e+00
5.759940048e+00 5.679887062e+00 5.359675119e+00 5.519781091e+00 5.519781091e+00 5.359675119e+00
5.359675119e+00 5.519781091e+00 5.519781091e+00 5.359675119e+00 5.519781091e+00 5.519781091e+00
5.359675119e+00 5.679887062e+00 5.839993034e+00 5.839993034e+00 5.679887062e+00 5.679887062e+00
5.839993034e+00 5.839993034e+00 5.679887062e+00 5.839993034e+00 5.839993034e+00 5.679887062e+00
5.359675119e+00 4.719251233e+00 5.039463176e+00 5.039463176e+00 4.719251233e+00 4.719251233e+00
5.039463176e+00 5.039463176e+00 4.719251233e+00 5.039463176e+00 5.039463176e+00 4.719251233e+00
5.359675119e+00 5.679887062e+00 5.679887062e+00 5.359675119e+00 5.359675119e+00 5.679887062e+00
5.679887062e+00 5.359675119e+00 5.679887062e+00 5.679887062e+00 5.359675119e+00 4.719251233e+00
3.438403460e+00 4.078827346e+00 4.078827346e+00 3.438403460e+00 3.438403460e+00 4.078827346e+00
4.078827346e+00 3.438403460e+00 4.078827346e+00 4.078827346e+00 3.438403460e+00 4.719251233e+00
5.359675119e+00 5.359675119e+00 4.719251233e+00 4.719251233e+00 5.359675119e+00 5.359675119e+00
4.719251233e+00 5.359675119e+00 5.359675119e+00 4.719251233e+00 3.438403460e+00 8.767079130e-01
2.157555687e+00 2.157555687e+00 8.767079130e-01 8.767079130e-01 2.157555687e+00 2.157555687e+00
8.767079130e-01 2.157555687e+00 2.157555687e+00 8.767079130e-01 3.438403460e+00 4.719251233e+00
4.719251233e+00 3.438403460e+00 3.438403460e+00 4.719251233e+00 4.719251233e+00 3.438403460e+00
4.719251233e+00 4.719251233e+00 3.438403460e+00 8.767079130e-01 -4.246683179e+00 -1.684987633e+00
-1.684987633e+00 -4.246683179e+00 -4.246683179e+00 -1.684987633e+00 -1.684987633e+00 -4.246683179e+00
-1.684987633e+00 -1.684987633e+00 -4.246683179e+00 8.767079130e-01 3.438403460e+00 3.438403460e+00
8.767079130e-01 8.767079130e-01 3.438403460e+00 3.438403460e+00 8.767079130e-01 3.438403460e+00
3.438403460e+00 8.767079130e-01 -4.246683179e+00 1.112349010e+01 1.624688119e+01 1.624688119e+01
1.112349010e+01 6.000099006e+00 8.561794552e+00 8.561794552e+00 6.000099006e+00 6.000099006e+00
8.561794552e+00 8.561794552e+00 6.000099006e+00 1.112349010e+01 1.112349010e+01 1.112349010e+01
8.561794552e+00 1.112349010e+01 8.561794552e+00 6.000099006e+00 6.000099006e+00 1.112349010e+01
1.368518564e+01 1.368518564e+01 1.112349010e+01 1.112349010e+01 1.368518564e+01 1.368518564e+01
1.112349010e+01 1.624688119e+01 1.624688119e+01 1.624688119e+01 1.624688119e+01 1.368518564e+01
1.624688119e+01 1.368518564e+01 8.561794552e+00 6.000099006e+00 7.280946779e+00 7.280946779e+00
6.000099006e+00 6.000099006e+00 7.280946779e+00 7.280946779e+00 6.000099006e+00 8.561794552e+00
8.561794552e+00 8.561794552e+00 7.280946779e+00 8.561794552e+00 7.280946779e+00 6.000099006e+00
8.561794552e+00 9.842642325e+00 9.842642325e+00 8.561794552e+00 8.561794552e+00 9.842642325e+00
9.842642325e+00 8.561794552e+00 1.112349010e+01 1.112349010e+01 1.112349010e+01 9.842642325e+00
1.112349010e+01 9.842642325e+00 7.280946779e+00 6.000099006e+00 6.640522892e+00 6.640522892e+00
6.000099006e+00 6.000099006e+00 6.640522892e+00 6.640522892e+00 6.000099006e+00 7.280946779e+00
7.280946779e+00 7.280946779e+00 6.640522892e+00 7.280946779e+00 6.640522892e+00 6.000099006e+00
7.280946779e+00 7.921370665e+00 7.921370665e+00 7.280946779e+00 7.280946779e+00 7.921370665e+00
7.921370665e+00 7.280946779e+00 8.561794552e+00 8.561794552e+00 8.561794552e+00 7.921370665e+00
8.561794552e+00 7.921370665e+00 6.640522892e+00 6.000099006e+00 6.320310949e+00 6.320310949e+00
6.000099006e+00 6.000099006e+00 6.320310949e+00 6.320310949e+00 6.000099006e+00 6.640522892e+00
6.640522892e+00 6.640522892e+00 6.320310949e+00 6.640522892e+00 6.320310949e+00 6.000099006e+00
6.640522892e+00 6.960734836e+00 6.960734836e+00 6.640522892e+00 6.640522892e+00 6.960734836e+00
6.960734836e+00 6.640522892e+00 7.280946779e+00 7.280946779e+00 7.280946779e+00 6.960734836e+00
7.280946779e+00 6.960734836e+00 6.320310949e+00 6.000099006e+00 6.160204977e+00 6.160204977e+00
6.000099006e+00 6.000099006e+00 6.160204977e+00 6.160204977e+00 6.000099006e+00 6.320310949e+00
6.320310949e+00 6.320310949e+00 6.160204977e+00 6.320310949e+00 6.160204977e+00 6.000099006e+00
6.320310949e+00 6.480416921e+00 6.480416921e+00 6.320310949e+00 6.320310949e+00 6.480416921e+00
6.480416921e+00 6.320310949e+00 6.640522892e+00 6.640522892e+00 6.640522892e+00 6.480416921e+00
6.640522892e+00 6.480416921e+00 6.240257963e+00 6.320310949e+00 6.320310949e+00 6.240257963e+00
6.160204977e+00 6.160204977e+00 6.240257963e+00 6.320310949e+00 6.160204977e+00 6.240257963e+00
6.320310949e+00 6.240257963e+00 6.160204977e+00 6.240257963e+00 6.160204977e+00 6.080151992e+00
6.080151992e+00 6.000099006e+00 6.000099006e+00 6.080151992e+00 6.000099006e+00 6.080151992e+00
6.080151992e+00 6.000099006e+00 6.080151992e+00 6.000099006e+00 6.240257963e+00 6.320310949e+00
6.160204977e+00 6.240257963e+00 6.320310949e+00 6.160204977e+00 6.240257963e+00 6.320310949e+00
6.160204977e+00 6.240257963e+00 6.160204977e+00 6.080151992e+00 6.000099006e+00 6.080151992e+00
6.000099006e+00 6.080151992e+00 6.000099006e+00 6.080151992e+00 6.000099006e+00 6.160204977e+00
6.080151992e+00 6.160204977e+00 6.160204977e+00 6.080151992e+00 6.000099006e+00 6.000099006e+00
6.080151992e+00 6.160204977e+00 6.000099006e+00 6.080151992e+00 6.160204977e+00 6.080151992e+00
6.000099006e+00 6.080151992e+00 6.000099006e+00 6.240257963e+00 6.320310949e+00 6.320310949e+00
6.240257963e+00 6.160204977e+00 6.240257963e+00 6.320310949e+00 6.160204977e+00 6.240257963e+00
6.320310949e+00 6.240257963e+00 6.160204977e+00 6.240257963e+00 6.160204977e+00 6.080151992e+00
6.000099006e+00 6.080151992e+00 6.000099006e+00 6.080151992e+00 6.000099006e+00 6.080151992e+00
6.000099006e+00 6.320310949e+00 6.000099006e+00 6.320310949e+00 6.000099006e+00 6.160204977e+00
6.160204977e+00 6.000099006e+00 6.000099006e+00 6.160204977e+00 6.160204977e+00 6.000099006e+00
6.320310949e+00 6.320310949e+00 6.320310949e+00 6.160204977e+00 6.320310949e+00 6.160204977e+00
6.000099006e+00 6.640522892e+00 6.000099006e+00 6.640522892e+00 6.000099006e+00 6.320310949e+00
6.320310949e+00 6.000099006e+00 6.000099006e+00 6.320310949e+00 6.320310949e+00 6.000099006e+00
6.640522892e+00 6.640522892e+00 6.640522892e+00 6.320310949e+00 6.640522892e+00 6.320310949e+00
6.000099006e+00 7.280946779e+00 6.000099006e+00 7.280946779e+00 6.000099006e+00 6.640522892e+00
6.640522892e+00 6.000099006e+00 6.000099006e+00 6.640522892e+00 6.640522892e+00 6.000099006e+00
7.280946779e+00 7.280946779e+00 7.280946779e+00 6.640522892e+00 7.280946779e+00 6.640522892e+00
6.000099006e+00 8.561794552e+00 6.000099006e+00 8.561794552e+00 6.000099006e+00 7.280946779e+00
7.280946779e+00 6.000099006e+00 6.000099006e+00 7.280946779e+00 7.280946779e+00 6.000099006e+00
8.561794552e+00 8.561794552e+00 8.561794552e+00 7.280946779e+00 8.561794552e+00 7.280946779e+00
6.000099006e+00 1.112349010e+01 1.624688119e+01 1.624688119e+01 1.112349010e+01 6.000099006e+00
6.000099006e+00 1.112349010e+01 1.624688119e+01 6.000099006e+00 8.561794552e+00 8.561794552e+00
6.000099006e+00 6.000099006e+00 8.561794552e+00 8.561794552e+00 6.000099006e+00 1.112349010e+01
1.112349010e+01 1.112349010e+01 8.561794552e+00 1.112349010e+01 8.561794552e+00 6.000099006e+00
8.767079130e-01 3.438403460e+00 3.438403460e+00 8.767079130e-01 8.767079130e-01 3.438403460e+00
3.438403460e+00 8.767079130e-01 3.438403460e+00 3.438403460e+00 8.767079130e-01 8.767079130e-01
-4.246683179e+00 -4.246683179e+00 3.438403460e+00 4.719251233e+00 4.719251233e+00 3.438403460e+00
3.438403460e+00 4.719251233e+00 4.719251233e+00 3.438403460e+00 4.719251233e+00 4.719251233e+00
3.438403460e+00 8.767079130e-01 4.719251233e+00 5.359675119e+00 5.359675119e+00 4.719251233e+00
4.719251233e+00 5.359675119e+00 5.359675119e+00 4.719251233e+00 5.359675119e+00 5.359675119e+00
4.719251233e+00 3.438403460e+00 5.359675119e+00 5.679887062e+00 5.679887062e+00 5.359675119e+00
5.359675119e+00 5.679887062e+00 5.679887062e+00 5.359675119e+00 5.679887062e+00 5.679887062e+00
5.359675119e+00 4.719251233e+00 5.679887062e+00 5.839993034e+00 5.839993034e+00 5.679887062e+00
5.679887062e+00 5.839993034e+00 5.839993034e+00 5.679887062e+00 5.839993034e+00 5.839993034e+00
5.679887062e+00 5.359675119e+00 5.920046020e+00 5.920046020e+00 5.839993034e+00 5.839993034e+00
5.920046020e+00 5.839993034e+00 5.920046020e+00 5.920046020e+00 5.839993034e+00 5.920046020e+00
5.839993034e+00 5.759940048e+00 5.759940048e+00 5.679887062e+00 5.679887062e+00 5.759940048e+00
5.679887062e+00 5.759940048e+00 5.759940048e+00 5.679887062e+00 5.759940048e+00 5.679887062e+00
5.920046020e+00 5.839993034e+00 5.920046020e+00 5.839993034e+00 5.920046020e+00 5.839993034e+00
5.920046020e+00 5.839993034e+00 5.759940048e+00 5.679887062e+00 5.759940048e+00 5.679887062e+00
5.759940048e+00 5.679887062e+00 5.759940048e+00 5.679887062e+00 5.920046020e+00 5.920046020e+00
5.839993034e+00 5.839993034e+00 5.920046020e+00 5.839993034e+00 5.920046020e+00 5.920046020e+00
5.839993034e+00 5.920046020e+00 5.839993034e+00 5.679887062e+00 5.920046020e+00 5.839993034e+00
5.920046020e+00 5.839993034e+00 5.920046020e+00 5.839993034e+00 5.920046020e+00 5.839993034e+00
5.759940048e+00 5.759940048e+00 5.679887062e+00 5.679887062e+00 5.759940048e+00 5.679887062e+00
5.759940048e+00 5.759940048e+00 5.679887062e+00 5.759940048e+00 5.679887062e+00 5.359675119e+00
5.519781091e+00 5.519781091e+00 5.359675119e+00 5.359675119e+00 5.519781091e+00 5.519781091e+00
5.359675119e+00 5.519781091e+00 5.519781091e+00 5.359675119e+00 5.679887062e+00 5.359675119e+00
5.679887062e+00 5.839993034e+00 5.839993034e+00 5.679887062e+00 5.679887062e+00 5.839993034e+00
5.839993034e+00 5.679887062e+00 5.839993034e+00 5.839993034e+00 5.679887062e+00 5.359675119e+00
4.719251233e+00 5.039463176e+00 5.039463176e+00 4.719251233e+00 4.719251233e+00 5.039463176e+00
5.039463176e+00 4.719251233e+00 5.039463176e+00 5.039463176e+00 4.719251233e+00 5.359675119e+00
4.719251233e+00 5.359675119e+00 5.679887062e+00 5.679887062e+00 5.359675119e+00 5.359675119e+00