TITLE="Simple Data File"
VARIABLES="X" "Y"
ZONE I=4 DATAPACKING=POINT
1 1
2 1
2 2
1 2
ZONE I=4 DATAPACKING=POINT
1 1
2 1
2 2
1 2
